% Model:              Rogowski Electrode poster example(v6.4).mph
% Version:            COMSOL 6.4.0.293
% Date:               Dec 17 2025, 17:10
% Dimension:          3
% Nodes:              2816
% Expressions:        41
% Description:        Electric field norm
% Length unit:        m
% x                       y                        z                        ec.normE (V/m) @ V_app=0 ec.normE (V/m) @ V_app=500 ec.normE (V/m) @ V_app=1000 ec.normE (V/m) @ V_app=1500 ec.normE (V/m) @ V_app=2000 ec.normE (V/m) @ V_app=2500 ec.normE (V/m) @ V_app=3000 ec.normE (V/m) @ V_app=3500 ec.normE (V/m) @ V_app=4000 ec.normE (V/m) @ V_app=4500 ec.normE (V/m) @ V_app=5000 ec.normE (V/m) @ V_app=5500 ec.normE (V/m) @ V_app=6000 ec.normE (V/m) @ V_app=6500 ec.normE (V/m) @ V_app=7000 ec.normE (V/m) @ V_app=7500 ec.normE (V/m) @ V_app=8000 ec.normE (V/m) @ V_app=8500 ec.normE (V/m) @ V_app=9000 ec.normE (V/m) @ V_app=9500 ec.normE (V/m) @ V_app=10000 ec.normE (V/m) @ V_app=10500 ec.normE (V/m) @ V_app=11000 ec.normE (V/m) @ V_app=11500 ec.normE (V/m) @ V_app=12000 ec.normE (V/m) @ V_app=12500 ec.normE (V/m) @ V_app=13000 ec.normE (V/m) @ V_app=13500 ec.normE (V/m) @ V_app=14000 ec.normE (V/m) @ V_app=14500 ec.normE (V/m) @ V_app=15000 ec.normE (V/m) @ V_app=15500 ec.normE (V/m) @ V_app=16000 ec.normE (V/m) @ V_app=16500 ec.normE (V/m) @ V_app=17000 ec.normE (V/m) @ V_app=17500 ec.normE (V/m) @ V_app=18000 ec.normE (V/m) @ V_app=18500 ec.normE (V/m) @ V_app=19000 ec.normE (V/m) @ V_app=19500 ec.normE (V/m) @ V_app=20000
-1.1566108658613891E-17   -0.08888888888888889     0.1                      0                        164.86324014718426         329.7266740468938           494.5901079468677           659.4535418468853           824.3169757469441           989.1804096470049           1154.0438435470387          1318.9072774471515          1483.7707113471106          1648.6341452470836          1813.4975791472623          1978.361013047318           2143.2244469474235          2308.087880847232           2472.9513147473317          2637.8147486474013          2802.6781825475227          2967.5416164473754          3132.405050347561           3297.26848424757             3462.131918147439            3626.9953520476497           3791.85878594797             3956.7222198478194           4121.5856537476475           4286.449087647934            4451.312521548013            4616.175955447764            4781.039389347871            4945.902823248427            5110.766257147854            5275.629691048302            5440.507445458635            5605.370882441941            5770.23431634112             5935.097750241425            6099.961184141247            6264.824618040963            6429.688051941838            6594.551485841523
0                         -0.08152807213038595     0.09525352906945148      0                        296.4643467773345          592.9290435212043           889.393740265465            1185.8584370098574          1482.3231337541877          1778.787830498588           2075.2525272429316          2371.7172239873216          2668.1819207316967          2964.646617476091           3261.1113142204454          3557.5760109648027          3854.040707709149           4150.50540445363            4446.970101197778           4743.434797942182           5039.8994946866             5336.3641914310265          5632.82888817548            5929.293584919734            6225.758281664151            6522.222978408468            6818.687675152954            7115.15237189748             7411.617068641848            7708.081765386443            8004.546462130629            8301.011158875026            8597.47585561915             8893.940552363627            9190.40524910826             9486.869945852093            9783.35491247128             10079.819613550393           10376.284310294857           10672.749007039383           10969.213703783045           11265.678400527107           11562.143097271972           11858.607794016252
-1.2246467991473533E-17   -0.1                     0.1                      0                        1.290377541602677          2.580833933628061           3.8712903480141403          5.161746767883805           6.45220319001486            7.742659613237147           9.033116037194437           10.323572461640898          11.614028886122094          12.904485310920974          14.19494173593457           15.485398160813736          16.775854585725934          18.066311010932377          19.35676743603368           20.6472238615743            21.93768028708354           23.228136711648148          24.518593137333443          25.809049562695154           27.09950598813144            28.389962413490338           29.68041883875431            30.970875263957733           32.26133168975368            33.55178811489635            34.84224454034723            36.1327009660086             37.423157391086555           38.713613816928806           40.00407024212485            41.29452666751001            42.587620724052336           43.878076971708914           45.1685333882971             46.45898980630278            47.74944622496173            49.039902643443014           50.33035906288759            51.62081548279622
-1.0842021724855044E-19   -0.09397118871313583     0.09504233547552479      0                        119.75385512543119         239.50794625181774          359.2620373787381           479.0161285056564           598.7702196328166           718.524310759819            838.27840188691             958.032493014028            1077.7865841411806          1197.5406752679958          1317.294766395299           1437.0488575224463          1556.8029486493629          1676.55703977638            1796.3111309035642          1916.0652220308154          2035.8193131579421          2155.573404284778           2275.3274954122508          2395.081586539205            2514.8356776662495           2634.589768793471            2754.343859919797            2874.097951047668            2993.852042174379            3113.606133302105            3233.3602244289095           3353.1143155558434           3472.868406683066            3592.6224978101477           3712.3765889377332           3832.130680064257            3951.8929519757235           4071.647042559175            4191.401133685919            4311.155224813221            4430.909315940004            4550.663407066605            4670.41749819339             4790.171589321171
0                         -0.09226111594289965     0.09431791874779062      0                        144.47520408042743         288.950596110243            433.42598814045186          577.9013801706276           722.3767722010683           866.8521642313863           1011.3275562616587          1155.8029482921115          1300.278340322484           1444.753732352728           1589.2291243832228          1733.7045164136682          1878.1799084437407          2022.6553004740067          2167.1306925045783          2311.6060845348197          2456.0814765653317          2600.5568685954727          2745.032260626005           2889.507652656238            3033.9830446865863           3178.458436717053            3322.933828746854            3467.409220777811            3611.884612807815            3756.3600048387443           3900.835396868891            4045.310788898979            4189.786180929557            4334.261572959881            4478.73696499082             4623.212357020755            4767.698921976392            4912.174314575906            5056.6497066060965           5201.125098636527            5345.600490666593            5490.075882696408            5634.5512747267185           5779.026666757398
1.0842021724855044E-19    -0.09533692124885025     0.09378238313762063      0                        121.30315162515978         242.6064958745124           363.90984012433995          485.2131843742398           606.5165286242254           727.8198728741658           849.1232171241112           970.4265613742069           1091.729905623917           1213.0332498740097          1334.336594124003           1455.6399383739192          1576.9432826242478          1698.2466268740034          1819.5499711240075          1940.8533153741812          2062.156659624146           2183.4600038740878          2304.7633481242115          2426.066692374058            2547.3700366240532           2668.6733808743165           2789.9767251237217           2911.2800693740396           3032.583413623858            3153.886757873783            3275.190102123757            3396.4934463740246           3517.79679062358             3639.1001348738596           3760.40347912388             3881.706823373897            4003.015309424377            4124.3186533862645           4245.621997634905            4366.925341884209            4488.228686133316            4609.532030382219            4730.835374631335            4852.138718880387
2.168404344971009E-19     -0.0830940298408939      0.09427950994080708      0                        273.1394717437171          546.2791368445344           819.4188019455017           1092.5584670465155          1365.6981321476092          1638.8377972486378          1911.9774623496203          2185.1171274507283          2458.2567925515586          2731.3964576528165          3004.536122753934           3277.6757878547264          3550.8154529557987          3823.955118056765           4097.094783157925           4370.234448259153           4643.374113360298           4916.513778460927           5189.653443562198           5462.793108663113            5735.932773764147            6009.072438865182            6282.2121039667845           6555.351769067602            6828.491434168381            7101.6310992694              7374.7707643705435           7647.910429471629            7921.050094572269            8194.189759673478            8467.329424774507            8740.469089875449            9013.62344158476             9286.763110421933            9559.902775523164            9833.042440623689            10106.182105724112           10379.321770825403           10652.461435926056           10925.601101026768
0                         -0.08543734212182463     0.09101739881910392      0                        267.5789606166521          535.1581545043852           802.7373483921215           1070.3165422798058          1337.8957361676767          1605.474930055462           1873.0541239431714          2140.6333178309915          2408.21251171865            2675.7917056066385          2943.370899494444           3210.950093382092           3478.5292872699442          3746.108481157627           4013.6876750455995          4281.266868933259           4548.846062821215           4816.425256708901           5084.004450596357           5351.583644484342            5619.162838372043            5886.7420322597              6154.321226147779            6421.900420035824            6689.47961392328             6957.058807811086            7224.638001698872            7492.21719558677             7759.796389474237            8027.375583361924            8294.954777250181            8562.533971137771            8830.124510777481            9097.703707059056            9365.282900946568            9632.862094833858            9900.441288721535            10168.020482609702           10435.599676496597           10703.178870384127
0                         -0.08746812605951201     0.08863583749558122      0                        255.97920369366068         511.95871709521026          767.9382304968814           1023.9177438985071          1279.8972573002131          1535.876770701959           1791.856284103577           2047.835797505281           2303.815310906974           2559.7948243087153          2815.7743377102506          3071.7538511121497          3327.733364513719           3583.7128779153845          3839.6923913171754          4095.67190471892            4351.651418120739           4607.630931522218           4863.610444923844           5119.589958325585            5375.569471727377            5631.548985128847            5887.52849853073             6143.508011932456            6399.487525334048            6655.4670387358565           6911.446552137604            7167.4260655391445           7423.405578940642            7679.385092342493            7935.364605744485            8191.344119145869            8447.33881444776             8703.318329869826            8959.29784327111             9215.27735667269             9471.256870074003            9727.236383475565            9983.215896877009            10239.1954102785
0                         -0.08776587204853911     0.09101739881910395      0                        231.75859688767892         463.5174106487346           695.2762244097545           927.0350381707934           1158.793851931933           1390.5526656929949          1622.3114794540284          1854.070293215169           2085.829106976177           2317.5879207374246          2549.3467344984374          2781.105548259648           3012.8643620206603          3244.623175781588           3476.3819895427964          3708.140803303805           3939.89961706505            4171.658430826319           4403.4172445869             4635.1760583482055           4866.93487210915             5098.693685870232            5330.452499631052            5562.21131339264             5793.970127153701            6025.728940914955            6257.4877546759              6489.246568436876            6721.0053821979              6952.764195958819            7184.523009720336            7416.281823481428            7648.050110269299            7879.808926210788            8111.567739971162            8343.326553731975            8575.085367493113            8806.84418125418             9038.602995015128            9270.361808775673
0                         -0.088727566111508       0.0892690141315069       0                        235.06914220454297         470.1386316867138           705.208121169154            940.2776106516384           1175.3471001341095          1410.4165896166357          1645.4860790990974          1880.5555685816128          2115.625058064023           2350.6945475465327          2585.7640370289587          2820.8335265117134          3055.9030159940176          3290.972505476516           3526.0419949590278          3761.111484441903           3996.1809739241753          4231.25046340657            4466.319952888889           4701.389442371734            4936.458931854112            5171.528421336628            5406.597910819189            5641.667400301717            5876.736889784171            6111.806379266963            6346.875868749069            6581.945358231522            6817.014847713855            7052.084337196469            7287.153826679343            7522.223316161506            7757.314064456787            7992.383556090093            8227.453045571772            8462.522535053893            8697.592024535934            8932.661514018428            9167.73100350095             9402.800492982917
1.0842021724855044E-19    -0.0811758506886695      0.08547243027717977      0                        370.8116328318139          741.623690170386            1112.435747509089           1483.247804847783           1854.0598621865877          2224.8719195253607          2595.6839768639447          2966.4960342027894          3337.3080915414876          3708.120148880161           4078.932206219092           4449.744263557665           4820.556320896445           5191.368378235178           5562.1804355741515          5932.992492912647           6303.804550251531           6674.616607590535           7045.428664928911           7416.240722267701            7787.05277960632             8157.86483694514             8528.676894283726            8899.48895162292             9270.301008961218            9641.113066300368            10011.925123638704           10382.737180977481           10753.54923831641            11124.361295654775           11495.173352994127           11865.985410332283           12236.805737283305           12607.617797917332           12978.429855256136           13349.24191259483            13720.053969932418           14090.866027271099           14461.678084609168           14832.490141947617
0                         -0.08965125761871806     0.08840196426320152      0                        237.0375565922218          474.07549912219             711.1134416525008           948.1513841828015           1185.1893267130781          1422.2272692435877          1659.2652117738683          1896.3031543042293          2133.341096834553           2370.379039364917           2607.4169818951823          2844.4549244256145          3081.4928669559126          3318.530809486007           3555.568752016651           3792.606694547223           4029.644637077565           4266.682579607555           4503.7205221385475          4740.758464668532            4977.79640719891             5214.8343497292435           5451.8722922596              5688.910234789812            5925.948177320136            6162.9861198507015           6400.024062380939            6637.062004911246            6874.099947441444            7111.137889972297            7348.17583250249             7585.213775032901            7822.274943823069            8059.312887769904            8296.350830299656            8533.388772829561            8770.42671535927             9007.464657888899            9244.502600419712            9481.5405429487
0                         -0.09387667554420381     0.09417079675486682      0                        126.36485557910541         252.72995142511974          379.09504727167047          505.4601431182127           631.825238964921            758.1903348115891           884.5554306582553           1010.9205265049966          1137.285622351635           1263.6507181982042          1390.0158140449544          1516.380909891812           1642.7460057384371          1769.1111015850831          1895.4761974317425          2021.8412932785545          2148.206389125178           2274.571484971969           2400.936580818693           2527.3016766652245           2653.666772512241            2780.0318683591563           2906.3969642050447           3032.762060052334            3159.127155898582            3285.4922517456243           3411.857347591892            3538.222443439042            3664.5875392857006           3790.9526351327067           3917.3177309794              4043.6828268260156           4170.054015495875            4296.4191114276255           4422.784207273982            4549.149303120545            4675.514398967144            4801.879494813613            4928.244590660134            5054.609686507067
-2.168404344971009E-19    -0.0943427913567583      0.09365985686014201      0                        128.13637412790115         256.27300422015105          384.4096343129428           512.5462644058159           640.6828944987651           768.8195245916982           896.9561546846462           1025.0927847776777          1153.2294148704732          1281.3660449635656          1409.5026750563197          1537.6393051493833          1665.7759352424555          1793.9125653352608          1922.0491954282509          2050.1858255213974          2178.3224556142113          2306.4590857070907          2434.5957158000706          2562.732345893288            2690.8689759862814           2819.005606079485            2947.142236171658            3075.2788662650046           3203.4154963577757           3331.55212645059             3459.688756543317            3587.825386636864            3715.962016729479            3844.098646822228            3972.235276915459            4100.371907009104            4228.516315464798            4356.652945613654            4484.789575706519            4612.926205799095            4741.062835892319            4869.199465985221            4997.336096078288            5125.472726170938
-1.3552527156068805E-19   -0.09325057057640972     0.08439820099511654      0                        258.39697307811997         516.7941213964878           775.1912697151531           1033.5884180338114          1291.9855663525523          1550.382714671226           1808.7798629901856          2067.1770113087905          2325.5741596274506          2583.9713079461253          2842.3684562652315          3100.765604583933           3359.162752902577           3617.559901221424           3875.9570495401554          4134.354197859104           4392.751346178025           4651.148494496605           4909.545642815723           5167.942791133895            5426.339939453447            5684.737087771894            5943.134236090413            6201.531384409247            6459.928532728236            6718.325681047334            6976.722829365912            7235.119977685057            7493.517126003571            7751.914274322227            8010.311422641334            8268.7085709592              8527.131400821027            8785.528552351781            9043.925700670414            9302.322848989013            9560.719997305892            9819.117145623204            10077.514293941931           10335.911442259672
-9.486769009248164E-20    -0.09296145215571784     0.08372988265216473      0                        270.10998923565273         540.2202008522892           810.3304124691704           1080.440624086026           1350.5508357030053          1620.6610473197848          1890.77125893693            2160.8814705538252          2430.991682170422           2701.101893787255           2971.2121054045197          3241.3223170215233          3511.432528638189           3781.542740255539           4051.6529518722964          4321.763163489521           4591.873375106485           4861.983586723021           5132.09379834018            5402.204009956762            5672.314221574345            5942.424433191294            6212.534644807975            6482.644856425034            6752.755068041728            7022.865279659023            7292.9754912762455           7563.085702893091            7833.19591450957             8103.306126125902            8373.416337743885            8643.526549359947            8913.662771020177            9183.772986146505            9453.883197762534            9723.9934093788              9994.10362099261             10264.213832606949           10534.324044223704           10804.43425583895
2.168404344971009E-19     -0.08695553503181762     0.08453580924555948      0                        308.66771209687437         617.3358560782614           926.0040000596903           1234.6721440411377          1543.3402880227154          1852.0084320042577          2160.6765759857562          2469.3447199672078          2778.012863948713           3086.681007930535           3395.349151911784           3704.0172958933717          4012.685439874799           4321.353583855979           4630.021727837656           4938.68987181938            5247.358015800988           5556.026159782468           5864.694303764079           6173.362447745378            6482.030591726872            6790.698735708781            7099.366879689983            7408.035023671502            7716.703167652963            8025.371311634296            8334.039455615966            8642.707599597381            8951.375743579241            9260.04388756013             9568.712031542384            9877.380175523322            10186.069421841672           10494.737567399765           10803.405711381212           11112.073855361486           11420.741999342252           11729.410143322626           12038.078287305243           12346.746431284637
-1.0842021724855044E-19   -0.08324639198839505     0.0816053741791312       0                        388.504073590793           777.0086726958855           1165.5132718011726          1554.017870906478           1942.522470011795           2331.02706911712            2719.53166822248            3108.036267327829           3496.5408664331917          3885.0454655386343          4273.5500646439705          4662.054663749197           5050.559262854722           5439.063861959864           5827.568461065164           6216.073060170663           6604.577659275964           6993.082258380874           7381.586857486863           7770.091456591839            8158.596055697824            8547.10065480273             8935.605253907885            9324.10985301327             9712.614452119014            10101.119051223795           10489.623650329295           10878.12824943499            11266.632848540532           11655.137447645582           12043.642046751189           12432.146645856432           12820.669047575913           13209.1736507297             13597.678249834717           13986.182848939272           14374.687448043496           14763.192047147739           15151.696646252885           15540.20124535664
2.168404344971009E-19     -0.08181037805606553     0.09286627407335399      0                        301.91110256330273         603.8225378014463           905.7339730398555           1207.6454082783216          1509.5568435168693          1811.4682787553406          2113.3797139937387          2415.2911492323365          2717.202584470687           3019.114019709237           3321.0254549477672          3622.9368901861744          3924.8483254247694          4226.759760663132           4528.671195901526           4830.582631140053           5132.494066378689           5434.405501617081           5736.3169368558565          6038.2283720941705           6340.139807332661            6642.051242571052            6943.962677809868            7245.874113048226            7547.785548286684            7849.696983525345            8151.608418763656            8453.519854002272            8755.431289240592            9057.342724479222            9359.254159717802            9661.16559495612             9963.092319027175            10265.003758305567           10566.915193544142           10868.826628783023           11170.738064020697           11472.649499258874           11774.560934497475           12076.472369735824
-2.168404344971009E-19    -0.08710267930141885     0.09427950994080707      0                        210.42678913576657         420.853706144665            631.2806231536046           841.7075401625069           1052.1344571715322          1262.5613741805346          1472.988291189333           1683.4152081984698          1893.842125207417           2104.269042216432           2314.6959592254143          2525.1228762344585          2735.5497932435383          2945.9767102520673          3156.4036272613967          3366.8305442700675          3577.257461279359           3787.684378288239           3998.111295297318           4208.538212306103            4418.965129315008            4629.392046323921            4839.818963332826            5050.245880342154            5260.672797351167            5471.099714359864            5681.526631369048            5891.953548377821            6102.380465386726            6312.807382395837            6523.234299405129            6733.661216414099            6944.097930518296            7154.524850359476            7364.951767367773            7575.378684376879            7785.805601385625            7996.232518394242            8206.65943540375             8417.086352412054
-2.168404344971009E-19    -0.08560719219054497     0.0814531119029133       0                        362.71381848553074         725.4281555420135           1088.142492598734           1450.856829655385           1813.5711667120038          2176.285503768743           2538.9998408254633          2901.7141778821906          3264.428514939136           3627.1428519956808          3989.8571890526787          4352.571526109234           4715.28586316593            5078.000200222347           5440.714537279275           5803.42887433634            6166.143211392911           6528.857548449391           6891.571885506408           7254.286222563222            7617.000559619977            7979.714896676271            8342.429233732833            8705.143570789729            9067.857907846057            9430.572244903402            9793.286581960194            10156.000919017362           10518.715256073388           10881.429593130233           11244.143930186954           11606.858267243757           11969.59500559089            12332.309346395692           12695.023683451724           13057.738020506476           13420.452357561813           13783.166694617505           14145.881031672128           14508.595368727638
2.168404344971009E-19     -0.08188912399559047     0.07611162657218126      0                        472.6387136867038          945.2779914472621           1417.9172692082677          1890.5565469692658          2363.1958247302996          2835.8351024914414          3308.4743802523813          3781.113658013345           4253.752935774383           4726.392213535518           5199.0314912964395          5671.670769057542           6144.3100468184675          6616.949324579767           7089.5886023406165          7562.2278801019675          8034.867157862842           8507.506435623955           8980.145713384756           9452.784991145803            9925.42426890684             10398.063546668009           10870.702824428898           11343.342102190136           11815.981379951141           12288.620657712256           12761.259935473              13233.899213234059           13706.538490995168           14179.177768756837           14651.817046517535           15124.456324278595           15597.13644693425            16069.775727878097           16542.415005638788           17015.05428339906            17487.693561159733           17960.332838920272           18432.972116680485           18905.611394441803